# vtk DataFile Version 2.0
slope
ASCII
DATASET UNSTRUCTURED_GRID
POINTS 480 double
0.000000 0.000000 2.000000
0.000000 1.000000 2.000000
1.000000 0.000000 2.000000
1.000000 1.000000 2.000000
2.000000 0.000000 2.000000
2.000000 1.000000 2.000000
3.000000 0.000000 2.000000
3.000000 1.000000 2.000000
4.000000 0.000000 2.000000
4.000000 1.000000 2.000000
5.000000 0.000000 2.000000
5.000000 1.000000 2.000000
6.000000 0.000000 2.000000
6.000000 1.000000 2.000000
7.000000 0.000000 2.000000
7.000000 1.000000 2.000000
8.000000 0.000000 2.000000
8.000000 1.000000 2.000000
9.000000 0.000000 2.000000
9.000000 1.000000 2.000000
10.000000 0.000000 2.000000
10.000000 1.000000 2.000000
11.000000 0.000000 2.000000
11.000000 1.000000 2.000000
12.000000 0.000000 2.000000
12.000000 1.000000 2.000000
13.000000 0.000000 2.000000
13.000000 1.000000 2.000000
14.000000 0.000000 2.000000
14.000000 1.000000 2.000000
0.000000 0.000000 3.000000
0.000000 1.000000 3.000000
1.000000 0.000000 3.000000
1.000000 1.000000 3.000000
2.000000 0.000000 3.000000
2.000000 1.000000 3.000000
3.000000 0.000000 3.000000
3.000000 1.000000 3.000000
4.000000 0.000000 3.000000
4.000000 1.000000 3.000000
5.000000 0.000000 3.000000
5.000000 1.000000 3.000000
6.000000 0.000000 3.000000
6.000000 1.000000 3.000000
7.000000 0.000000 3.000000
7.000000 1.000000 3.000000
8.000000 0.000000 3.000000
8.000000 1.000000 3.000000
9.000000 0.000000 3.000000
9.000000 1.000000 3.000000
10.000000 0.000000 3.000000
10.000000 1.000000 3.000000
11.000000 0.000000 3.000000
11.000000 1.000000 3.000000
12.000000 0.000000 3.000000
12.000000 1.000000 3.000000
13.000000 0.000000 3.000000
13.000000 1.000000 3.000000
14.000000 0.000000 3.000000
14.000000 1.000000 3.000000
0.000000 0.000000 4.000000
0.000000 1.000000 4.000000
1.000000 0.000000 4.000000
1.000000 1.000000 4.000000
2.000000 0.000000 4.000000
2.000000 1.000000 4.000000
3.000000 0.000000 4.000000
3.000000 1.000000 4.000000
4.000000 0.000000 4.000000
4.000000 1.000000 4.000000
5.000000 0.000000 4.000000
5.000000 1.000000 4.000000
6.000000 0.000000 4.000000
6.000000 1.000000 4.000000
7.000000 0.000000 4.000000
7.000000 1.000000 4.000000
8.000000 0.000000 4.000000
8.000000 1.000000 4.000000
9.000000 0.000000 4.000000
9.000000 1.000000 4.000000
10.000000 0.000000 4.000000
10.000000 1.000000 4.000000
11.000000 0.000000 4.000000
11.000000 1.000000 4.000000
12.000000 0.000000 4.000000
12.000000 1.000000 4.000000
13.000000 0.000000 4.000000
13.000000 1.000000 4.000000
14.000000 0.000000 4.000000
14.000000 1.000000 4.000000
0.000000 0.000000 5.000000
0.000000 1.000000 5.000000
1.000000 0.000000 5.000000
1.000000 1.000000 5.000000
2.000000 0.000000 5.000000
2.000000 1.000000 5.000000
3.000000 0.000000 5.000000
3.000000 1.000000 5.000000
4.000000 0.000000 5.000000
4.000000 1.000000 5.000000
5.000000 0.000000 5.000000
5.000000 1.000000 5.000000
6.000000 0.000000 5.000000
6.000000 1.000000 5.000000
7.000000 0.000000 5.000000
7.000000 1.000000 5.000000
8.000000 0.000000 5.000000
8.000000 1.000000 5.000000
9.000000 0.000000 5.000000
9.000000 1.000000 5.000000
10.000000 0.000000 5.000000
10.000000 1.000000 5.000000
11.000000 0.000000 5.000000
11.000000 1.000000 5.000000
12.000000 0.000000 5.000000
12.000000 1.000000 5.000000
13.000000 0.000000 5.000000
13.000000 1.000000 5.000000
14.000000 0.000000 5.000000
14.000000 1.000000 5.000000
0.000000 0.000000 6.000000
0.000000 1.000000 6.000000
1.000000 0.000000 6.000000
1.000000 1.000000 6.000000
2.000000 0.000000 6.000000
2.000000 1.000000 6.000000
3.000000 0.000000 6.000000
3.000000 1.000000 6.000000
4.000000 0.000000 6.000000
4.000000 1.000000 6.000000
5.000000 0.000000 6.000000
5.000000 1.000000 6.000000
6.000000 0.000000 6.000000
6.000000 1.000000 6.000000
7.000000 0.000000 6.000000
7.000000 1.000000 6.000000
8.000000 0.000000 6.000000
8.000000 1.000000 6.000000
9.000000 0.000000 6.000000
9.000000 1.000000 6.000000
10.000000 0.000000 6.000000
10.000000 1.000000 6.000000
11.000000 0.000000 6.000000
11.000000 1.000000 6.000000
12.000000 0.000000 6.000000
12.000000 1.000000 6.000000
13.000000 0.000000 6.000000
13.000000 1.000000 6.000000
14.000000 0.000000 6.000000
14.000000 1.000000 6.000000
0.000000 0.000000 7.000000
0.000000 1.000000 7.000000
1.000000 0.000000 7.000000
1.000000 1.000000 7.000000
2.000000 0.000000 7.000000
2.000000 1.000000 7.000000
3.000000 0.000000 7.000000
3.000000 1.000000 7.000000
4.000000 0.000000 7.000000
4.000000 1.000000 7.000000
5.000000 0.000000 7.000000
5.000000 1.000000 7.000000
6.000000 0.000000 7.000000
6.000000 1.000000 7.000000
7.000000 0.000000 7.000000
7.000000 1.000000 7.000000
8.000000 0.000000 7.000000
8.000000 1.000000 7.000000
9.000000 0.000000 7.000000
9.000000 1.000000 7.000000
10.000000 0.000000 7.000000
10.000000 1.000000 7.000000
11.000000 0.000000 7.000000
11.000000 1.000000 7.000000
12.000000 0.000000 7.000000
12.000000 1.000000 7.000000
13.000000 0.000000 7.000000
13.000000 1.000000 7.000000
14.000000 0.000000 7.000000
14.000000 1.000000 7.000000
0.000000 0.000000 8.000000
0.000000 1.000000 8.000000
1.000000 0.000000 8.000000
1.000000 1.000000 8.000000
2.000000 0.000000 8.000000
2.000000 1.000000 8.000000
3.000000 0.000000 8.000000
3.000000 1.000000 8.000000
4.000000 0.000000 8.000000
4.000000 1.000000 8.000000
5.000000 0.000000 8.000000
5.000000 1.000000 8.000000
6.000000 0.000000 8.000000
6.000000 1.000000 8.000000
7.000000 0.000000 8.000000
7.000000 1.000000 8.000000
8.000000 0.000000 8.000000
8.000000 1.000000 8.000000
9.000000 0.000000 8.000000
9.000000 1.000000 8.000000
10.000000 0.000000 8.000000
10.000000 1.000000 8.000000
11.000000 0.000000 8.000000
11.000000 1.000000 8.000000
12.000000 0.000000 8.000000
12.000000 1.000000 8.000000
13.000000 0.000000 8.000000
13.000000 1.000000 8.000000
14.000000 0.000000 8.000000
14.000000 1.000000 8.000000
0.000000 0.000000 9.000000
0.000000 1.000000 9.000000
1.000000 0.000000 9.000000
1.000000 1.000000 9.000000
2.000000 0.000000 9.000000
2.000000 1.000000 9.000000
3.000000 0.000000 9.000000
3.000000 1.000000 9.000000
4.000000 0.000000 9.000000
4.000000 1.000000 9.000000
5.000000 0.000000 9.000000
5.000000 1.000000 9.000000
6.000000 0.000000 9.000000
6.000000 1.000000 9.000000
7.000000 0.000000 9.000000
7.000000 1.000000 9.000000
8.000000 0.000000 9.000000
8.000000 1.000000 9.000000
9.000000 0.000000 9.000000
9.000000 1.000000 9.000000
10.000000 0.000000 9.000000
10.000000 1.000000 9.000000
11.000000 0.000000 9.000000
11.000000 1.000000 9.000000
12.000000 0.000000 9.000000
12.000000 1.000000 9.000000
13.000000 0.000000 9.000000
13.000000 1.000000 9.000000
14.000000 0.000000 9.000000
14.000000 1.000000 9.000000
0.000000 0.000000 10.000000
0.000000 1.000000 10.000000
1.000000 0.000000 10.000000
1.000000 1.000000 10.000000
2.000000 0.000000 10.000000
2.000000 1.000000 10.000000
3.000000 0.000000 10.000000
3.000000 1.000000 10.000000
4.000000 0.000000 10.000000
4.000000 1.000000 10.000000
5.000000 0.000000 10.000000
5.000000 1.000000 10.000000
6.000000 0.000000 10.000000
6.000000 1.000000 10.000000
7.000000 0.000000 10.000000
7.000000 1.000000 10.000000
8.000000 0.000000 10.000000
8.000000 1.000000 10.000000
9.000000 0.000000 10.000000
9.000000 1.000000 10.000000
10.000000 0.000000 10.000000
10.000000 1.000000 10.000000
11.000000 0.000000 10.000000
11.000000 1.000000 10.000000
12.000000 0.000000 10.000000
12.000000 1.000000 10.000000
13.000000 0.000000 10.000000
13.000000 1.000000 10.000000
14.000000 0.000000 10.000000
14.000000 1.000000 10.000000
0.000000 0.000000 11.000000
0.000000 1.000000 11.000000
1.000000 0.000000 11.000000
1.000000 1.000000 11.000000
2.000000 0.000000 11.000000
2.000000 1.000000 11.000000
3.000000 0.000000 11.000000
3.000000 1.000000 11.000000
4.000000 0.000000 11.000000
4.000000 1.000000 11.000000
5.000000 0.000000 11.000000
5.000000 1.000000 11.000000
6.000000 0.000000 11.000000
6.000000 1.000000 11.000000
7.000000 0.000000 11.000000
7.000000 1.000000 11.000000
8.000000 0.000000 11.000000
8.000000 1.000000 11.000000
9.000000 0.000000 11.000000
9.000000 1.000000 11.000000
10.000000 0.000000 11.000000
10.000000 1.000000 11.000000
11.000000 0.000000 11.000000
11.000000 1.000000 11.000000
12.000000 0.000000 11.000000
12.000000 1.000000 11.000000
13.000000 0.000000 11.000000
13.000000 1.000000 11.000000
14.000000 0.000000 11.000000
14.000000 1.000000 11.000000
0.000000 0.000000 12.000000
0.000000 1.000000 12.000000
1.000000 0.000000 12.000000
1.000000 1.000000 12.000000
2.000000 0.000000 12.000000
2.000000 1.000000 12.000000
3.000000 0.000000 12.000000
3.000000 1.000000 12.000000
4.000000 0.000000 12.000000
4.000000 1.000000 12.000000
5.000000 0.000000 12.000000
5.000000 1.000000 12.000000
6.000000 0.000000 12.000000
6.000000 1.000000 12.000000
7.000000 0.000000 12.000000
7.000000 1.000000 12.000000
8.000000 0.000000 12.000000
8.000000 1.000000 12.000000
9.000000 0.000000 12.000000
9.000000 1.000000 12.000000
10.000000 0.000000 12.000000
10.000000 1.000000 12.000000
11.000000 0.000000 12.000000
11.000000 1.000000 12.000000
12.000000 0.000000 12.000000
12.000000 1.000000 12.000000
13.000000 0.000000 12.000000
13.000000 1.000000 12.000000
14.000000 0.000000 12.000000
14.000000 1.000000 12.000000
0.000000 0.000000 13.000000
0.000000 1.000000 13.000000
1.000000 0.000000 13.000000
1.000000 1.000000 13.000000
2.000000 0.000000 13.000000
2.000000 1.000000 13.000000
3.000000 0.000000 13.000000
3.000000 1.000000 13.000000
4.000000 0.000000 13.000000
4.000000 1.000000 13.000000
5.000000 0.000000 13.000000
5.000000 1.000000 13.000000
6.000000 0.000000 13.000000
6.000000 1.000000 13.000000
7.000000 0.000000 13.000000
7.000000 1.000000 13.000000
8.000000 0.000000 13.000000
8.000000 1.000000 13.000000
9.000000 0.000000 13.000000
9.000000 1.000000 13.000000
10.000000 0.000000 13.000000
10.000000 1.000000 13.000000
11.000000 0.000000 13.000000
11.000000 1.000000 13.000000
12.000000 0.000000 13.000000
12.000000 1.000000 13.000000
13.000000 0.000000 13.000000
13.000000 1.000000 13.000000
[...]
CELL_DATA 210
VECTORS velocity double
        0.0000000000	        0.0000000000	        0.0000000000
        0.0000000000	        0.0000000000	        0.0000000000
        0.0000000000	        0.0000000000	        0.0000000000
        0.0000000000	        0.0000000000	        0.0000000000
        0.0000000000	        0.0000000000	        0.0000000000
        0.0000000000	        0.0000000000	        0.0000000000
        0.0000000000	        0.0000000000	        0.0000000000
        0.0000000000	        0.0000000000	        0.0000000000
        0.0000000000	        0.0000000000	        0.0000000000
        0.0000000000	        0.0000000000	        0.0000000000
        0.0000000000	        0.0000000000	        0.0000000000
        0.0000000000	        0.0000000000	        0.0000000000
        0.0000000000	        0.0000000000	        0.0000000000
        0.0000000000	        0.0000000000	        0.0000000000
        0.0000000000	        0.0000000000	        0.0000000000
        0.0000000000	        0.0000000000	        0.0000000000
        0.0000000000	        0.0000000000	        0.0000000000
        0.0000000000	        0.0000000000	        0.0000000000
        0.0000000000	        0.0000000000	        0.0000000000
        0.0000000000	        0.0000000000	        0.0000000000
        0.0000000000	        0.0000000000	        0.0000000000
        0.0000000000	        0.0000000000	        0.0000000000
        0.0000000000	        0.0000000000	        0.0000000000
        0.0000000000	        0.0000000000	        0.0000000000
        0.0000000000	        0.0000000000	        0.0000000000
        0.0000000000	        0.0000000000	        0.0000000000
        0.0000000000	        0.0000000000	        0.0000000000
        0.0000000000	        0.0000000000	        0.0000000000
        0.0000000000	        0.0000000000	        0.0000000000
        0.0000000000	        0.0000000000	        0.0000000000
        0.0000000000	        0.0000000000	        0.0000000000
        0.0000000000	        0.0000000000	        0.0000000000
        0.0000000000	        0.0000000000	        0.0000000000
        0.0000000000	        0.0000000000	        0.0000000000
        0.0000000000	        0.0000000000	        0.0000000000
        0.0000000000	        0.0000000000	        0.0000000000
        0.0000000000	        0.0000000000	        0.0000000000
        0.0000000000	        0.0000000000	        0.0000000000
        0.0000000000	        0.0000000000	        0.0000000000
        0.0000000000	        0.0000000000	        0.0000000000
        0.0000000000	        0.0000000000	        0.0000000000
        0.0000000000	        0.0000000000	        0.0000000000
        0.0000000000	        0.0000000000	        0.0000000000
        0.0000000000	        0.0000000000	        0.0000000000
        0.0000000000	        0.0000000000	        0.0000000000
        0.0000000000	        0.0000000000	        0.0000000000
        0.0000000000	        0.0000000000	        0.0000000000
        0.0000000000	        0.0000000000	        0.0000000000
        0.0000000000	        0.0000000000	        0.0000000000
        0.0000000000	        0.0000000000	        0.0000000000
        0.0000000000	        0.0000000000	        0.0000000000
        0.0000000000	        0.0000000000	        0.0000000000
        0.0000000000	        0.0000000000	        0.0000000000
        0.0000000000	        0.0000000000	        0.0000000000
        0.0000000000	        0.0000000000	        0.0000000000
        0.0000000000	        0.0000000000	        0.0000000000
        0.0000000000	        0.0000000000	        0.0000000000
        0.0000000000	        0.0000000000	        0.0000000000
        0.0000000000	        0.0000000000	        0.0000000000
        0.0000000000	        0.0000000000	        0.0000000000
        0.0000000000	        0.0000000000	        0.0000000000
        0.0000000000	        0.0000000000	        0.0000000000
        0.0000000000	        0.0000000000	        0.0000000000
        0.0000000000	        0.0000000000	        0.0000000000
        0.0000000000	        0.0000000000	        0.0000000000
        0.0000000000	        0.0000000000	        0.0000000000
        0.0000000000	        0.0000000000	        0.0000000000
        0.0000000000	        0.0000000000	        0.0000000000
        0.0000000000	        0.0000000000	        0.0000000000
        0.0000000000	        0.0000000000	        0.0000000000
        0.0000000000	        0.0000000000	        0.0000000000
        0.0000000000	        0.0000000000	        0.0000000000
        0.0000000000	        0.0000000000	        0.0000000000
        0.0000000000	        0.0000000000	        0.0000000000
        0.0000000000	        0.0000000000	        0.0000000000
        0.0000000000	        0.0000000000	        0.0000000000
        0.0000000000	        0.0000000000	        0.0000000000
        0.0000000000	        0.0000000000	        0.0000000000
        0.0000000000	        0.0000000000	        0.0000000000
        0.0000000000	        0.0000000000	        0.0000000000
        0.0000000000	        0.0000000000	        0.0000000000
        0.0000000000	        0.0000000000	        0.0000000000
        0.0000000000	        0.0000000000	        0.0000000000
        0.0000000000	        0.0000000000	        0.0000000000
        0.0000000000	        0.0000000000	        0.0000000000
        0.0000000000	        0.0000000000	        0.0000000000
        0.0000000000	        0.0000000000	        0.0000000000
        0.0000000000	        0.0000000000	        0.0000000000
        0.0000000000	        0.0000000000	        0.0000000000
        0.0000000000	        0.0000000000	        0.0000000000
        0.0000000000	        0.0000000000	        0.0000000000
        0.0000000000	        0.0000000000	        0.0000000000
        0.0000000000	        0.0000000000	        0.0000000000
        0.0000000000	        0.0000000000	        0.0000000000
        0.0000000000	        0.0000000000	        0.0000000000
        0.0000000000	        0.0000000000	        0.0000000000
        0.0000000000	        0.0000000000	        0.0000000000
        0.0000000000	        0.0000000000	        0.0000000000
        0.0000000000	        0.0000000000	        0.0000000000
        0.0000000000	        0.0000000000	        0.0000000000
        0.0000000000	        0.0000000000	        0.0000000000
        0.0000000000	        0.0000000000	        0.0000000000
        0.0000000000	        0.0000000000	        0.0000000000
        0.0000000000	        0.0000000000	        0.0000000000
        0.0000000000	        0.0000000000	        0.0000000000
        0.0000000000	        0.0000000000	        0.0000000000
        0.0000000000	        0.0000000000	        0.0000000000
        0.0000000000	        0.0000000000	        0.0000000000
        0.0000000000	        0.0000000000	        0.0000000000
        0.0000000000	        0.0000000000	        0.0000000000
        0.0000000000	        0.0000000000	        0.0000000000
        0.0000000000	        0.0000000000	        0.0000000000
        0.0000000000	        0.0000000000	        0.0000000000
        0.0000000000	        0.0000000000	        0.0000000000
        0.0000000000	        0.0000000000	        0.0000000000
        0.0000000000	        0.0000000000	        0.0000000000
        0.0000000000	        0.0000000000	        0.0000000000
        0.0000000000	        0.0000000000	        0.0000000000
        0.0000000000	        0.0000000000	        0.0000000000
        0.0000000000	        0.0000000000	        0.0000000000
        0.0000000000	        0.0000000000	        0.0000000000
        0.0000000000	        0.0000000000	        0.0000000000
        0.0000000000	        0.0000000000	        0.0000000000
        0.0000000000	        0.0000000000	        0.0000000000
        0.0000000000	        0.0000000000	        0.0000000000
        0.0000000000	        0.0000000000	        0.0000000000
        0.0000000000	        0.0000000000	        0.0000000000
        0.0000000000	        0.0000000000	        0.0000000000
        0.0000000000	        0.0000000000	        0.0000000000
        0.0000000000	        0.0000000000	        0.0000000000
        0.0000000000	        0.0000000000	        0.0000000000
        0.0000000000	        0.0000000000	        0.0000000000
        0.0000000000	        0.0000000000	        0.0000000000
        0.0000000000	        0.0000000000	        0.0000000000
        0.0000000000	        0.0000000000	        0.0000000000
        0.0000000000	        0.0000000000	        0.0000000000
        0.0000000000	        0.0000000000	        0.0000000000
        0.0000000000	        0.0000000000	        0.0000000000
        0.0000000000	        0.0000000000	        0.0000000000
        0.0000000000	        0.0000000000	        0.0000000000
        0.0000000000	        0.0000000000	        0.0000000000
        0.0000000000	        0.0000000000	        0.0000000000
        0.0000000000	        0.0000000000	        0.0000000000
        0.0000000000	        0.0000000000	        0.0000000000
        0.0000000000	        0.0000000000	        0.0000000000
        0.0000000000	        0.0000000000	        0.0000000000
        0.0000000000	        0.0000000000	        0.0000000000
        0.0000000000	        0.0000000000	        0.0000000000
        0.0000000000	        0.0000000000	        0.0000000000
        0.0000000000	        0.0000000000	        0.0000000000
        0.0000000000	        0.0000000000	        0.0000000000
        0.0000000000	        0.0000000000	        0.0000000000
        0.0000000000	        0.0000000000	        0.0000000000
        0.0000000000	        0.0000000000	        0.0000000000
        0.0000000000	        0.0000000000	        0.0000000000
        0.0000000000	        0.0000000000	        0.0000000000
        0.0000000000	        0.0000000000	        0.0000000000
        0.0000000000	        0.0000000000	        0.0000000000
        0.0000000000	        0.0000000000	        0.0000000000
        0.0000000000	        0.0000000000	        0.0000000000
        0.0000000000	        0.0000000000	        0.0000000000
        0.0000000000	        0.0000000000	        0.0000000000
        0.0000000000	        0.0000000000	        0.0000000000
        0.0000000000	        0.0000000000	        0.0000000000
        0.0000000000	        0.0000000000	        0.0000000000
        0.0000000000	        0.0000000000	        0.0000000000
        0.0000000000	        0.0000000000	        0.0000000000
        0.0000000000	        0.0000000000	        0.0000000000
        0.0000000000	        0.0000000000	        0.0000000000
        0.0000000000	        0.0000000000	        0.0000000000
        0.0000000000	        0.0000000000	        0.0000000000
        0.0000000000	        0.0000000000	        0.0000000000
        0.0000000000	        0.0000000000	        0.0000000000
        0.0000000000	        0.0000000000	        0.0000000000
        0.0000000000	        0.0000000000	        0.0000000000
        0.0000000000	        0.0000000000	        0.0000000000
        0.0000000000	        0.0000000000	        0.0000000000
        0.0000000000	        0.0000000000	        0.0000000000
        0.0000000000	        0.0000000000	        0.0000000000
        0.0000000000	        0.0000000000	        0.0000000000
        0.0000000000	        0.0000000000	        0.0000000000
        0.0000000000	        0.0000000000	        0.0000000000
        0.0000000000	        0.0000000000	        0.0000000000
        0.0000000000	        0.0000000000	        0.0000000000
        0.0000000000	        0.0000000000	        0.0000000000
        0.0000000000	        0.0000000000	        0.0000000000
        0.0000000000	        0.0000000000	        0.0000000000
        0.0000000000	        0.0000000000	        0.0000000000
        0.0000000000	        0.0000000000	        0.0000000000
        0.0000000000	        0.0000000000	        0.0000000000
        0.0000000000	        0.0000000000	        0.0000000000
        0.0000000000	        0.0000000000	        0.0000000000
        0.0000000000	        0.0000000000	        0.0000000000
        0.0000000000	        0.0000000000	        0.0000000000
        0.0000000000	        0.0000000000	        0.0000000000
        0.0000000000	        0.0000000000	        0.0000000000
        0.0000000000	        0.0000000000	        0.0000000000
        0.0000000000	        0.0000000000	        0.0000000000
        0.0000000000	        0.0000000000	        0.0000000000
        0.0000000000	        0.0000000000	        0.0000000000
        0.0000000000	        0.0000000000	        0.0000000000
        0.0000000000	        0.0000000000	        0.0000000000
        0.0000000000	        0.0000000000	        0.0000000000
        0.0000000000	        0.0000000000	        0.0000000000
        0.0000000000	        0.0000000000	        0.0000000000
        0.0000000000	        0.0000000000	        0.0000000000
        0.0000000000	        0.0000000000	        0.0000000000
        0.0000000000	        0.0000000000	        0.0000000000
        0.0000000000	        0.0000000000	        0.0000000000
        0.0000000000	        0.0000000000	        0.0000000000
SCALARS pressure double 1
LOOKUP_TABLE default
    43425.0000000000
    57900.0000000000
    57900.0000000000
    57900.0000000000
    57900.0000000000
    57900.0000000000
    57900.0000000000
    57900.0000000000
    57900.0000000000
    57900.0000000000
    57900.0000000000
    57900.0000000000
    57900.0000000000
    43425.0000000000
    57900.0000000000
    72375.0000000000
    72375.0000000000
    72375.0000000000
    72375.0000000000
    72375.0000000000
    72375.0000000000
    72375.0000000000
    72375.0000000000
    72375.0000000000
    72375.0000000000
    72375.0000000000
    72375.0000000000
    57900.0000000000
    57900.0000000000
    72375.0000000000
    72375.0000000000
    72375.0000000000
    72375.0000000000
    72375.0000000000
    72375.0000000000
    72375.0000000000
    72375.0000000000
    72375.0000000000
    72375.0000000000
    72375.0000000000
    72375.0000000000
    57900.0000000000
    57900.0000000000
    72375.0000000000
    72375.0000000000
    72375.0000000000
    72375.0000000000
    72375.0000000000
    72375.0000000000
    72375.0000000000
    72375.0000000000
    72375.0000000000
    72375.0000000000
    72375.0000000000
    72375.0000000000
    57900.0000000000
    57900.0000000000
    72375.0000000000
    72375.0000000000
    72375.0000000000
    72375.0000000000
    72375.0000000000
    72375.0000000000
    72375.0000000000
    72375.0000000000
    72375.0000000000
    72375.0000000000
    72375.0000000000
    72375.0000000000
    57900.0000000000
    57900.0000000000
    72375.0000000000
    72375.0000000000
    72375.0000000000
    72375.0000000000
    72375.0000000000
    72375.0000000000
    72375.0000000000
    72375.0000000000
    72375.0000000000
    72375.0000000000
    72375.0000000000
    72375.0000000000
    57900.0000000000
    57900.0000000000
    72375.0000000000
    72375.0000000000
    72375.0000000000
    72375.0000000000
    72375.0000000000
    72375.0000000000
    72375.0000000000
    72375.0000000000
    72375.0000000000
    72375.0000000000
    72375.0000000000
    72375.0000000000
    57900.0000000000
    57900.0000000000
    72375.0000000000
    72375.0000000000
    72375.0000000000
    72375.0000000000
    72375.0000000000
    72375.0000000000
    72375.0000000000
    72375.0000000000
    72375.0000000000
    72375.0000000000
    72375.0000000000
    72375.0000000000
    57900.0000000000
    57900.0000000000
    72375.0000000000
    72375.0000000000
    72375.0000000000
    72375.0000000000
    72375.0000000000
    72375.0000000000
    72375.0000000000
    72375.0000000000
    72375.0000000000
    72375.0000000000
    72375.0000000000
    72375.0000000000
    57900.0000000000
    57900.0000000000
    72375.0000000000
    72375.0000000000
    72375.0000000000
    72375.0000000000
    72375.0000000000
    72375.0000000000
    72375.0000000000
    72375.0000000000
    72375.0000000000
    72375.0000000000
    72375.0000000000
    72375.0000000000
    57900.0000000000
    57900.0000000000
    72375.0000000000
    72375.0000000000
    72375.0000000000
    72375.0000000000
    72375.0000000000
    72375.0000000000
    72375.0000000000
    72375.0000000000
    72375.0000000000
    72375.0000000000
    72375.0000000000
    72375.0000000000
    57900.0000000000
    57900.0000000000
    72375.0000000000
    72375.0000000000
    72375.0000000000
    72375.0000000000
    72375.0000000000
    72375.0000000000
    72375.0000000000
    72375.0000000000
    72375.0000000000
    72375.0000000000
    72375.0000000000
    72375.0000000000
    57900.0000000000
    57900.0000000000
    72375.0000000000
    72375.0000000000
    72375.0000000000
    72375.0000000000
    72375.0000000000
    72375.0000000000
    72375.0000000000
    72375.0000000000
    72375.0000000000
    72375.0000000000
    72375.0000000000
    72375.0000000000
    57900.0000000000
    57900.0000000000
    72375.0000000000
    72375.0000000000
    72375.0000000000
    72375.0000000000
    72375.0000000000
    72375.0000000000
    72375.0000000000
    72375.0000000000
    72375.0000000000
    72375.0000000000
    72375.0000000000
    72375.0000000000
    57900.0000000000
    43425.0000000000
    57900.0000000000
    57900.0000000000
    57900.0000000000
    57900.0000000000
    57900.0000000000
    57900.0000000000
    57900.0000000000
    57900.0000000000
    57900.0000000000
    57900.0000000000
    57900.0000000000
    57900.0000000000
    43425.0000000000
SCALARS snow_volume_fraction double 1
LOOKUP_TABLE default
      428.5714285714
      571.4285714286
      571.4285714286
      571.4285714286
      571.4285714286
      571.4285714286
      571.4285714286
      571.4285714286
      571.4285714286
      571.4285714286
      571.4285714286
      571.4285714286
      571.4285714286
      428.5714285714
      571.4285714286
      714.2857142857
      714.2857142857
      714.2857142857
      714.2857142857
      714.2857142857
      714.2857142857
      714.2857142857
      714.2857142857
      714.2857142857
      714.2857142857
      714.2857142857
      714.2857142857
      571.4285714286
      571.4285714286
      714.2857142857
      714.2857142857
      714.2857142857
      714.2857142857
      714.2857142857
      714.2857142857
      714.2857142857
      714.2857142857
      714.2857142857
      714.2857142857
      714.2857142857
      714.2857142857
      571.4285714286
      571.4285714286
      714.2857142857
      714.2857142857
      714.2857142857
      714.2857142857
      714.2857142857
      714.2857142857
      714.2857142857
      714.2857142857
      714.2857142857
      714.2857142857
      714.2857142857
      714.2857142857
      571.4285714286
      571.4285714286
      714.2857142857
      714.2857142857
      714.2857142857
      714.2857142857
      714.2857142857
      714.2857142857
      714.2857142857
      714.2857142857
      714.2857142857
      714.2857142857
      714.2857142857
      714.2857142857
      571.4285714286
      571.4285714286
      714.2857142857
      714.2857142857
      714.2857142857
      714.2857142857
      714.2857142857
      714.2857142857
      714.2857142857
      714.2857142857
      714.2857142857
      714.2857142857
      714.2857142857
      714.2857142857
      571.4285714286
      571.4285714286
      714.2857142857
      714.2857142857
      714.2857142857
      714.2857142857
      714.2857142857
      714.2857142857
      714.2857142857
      714.2857142857
      714.2857142857
      714.2857142857
      714.2857142857
      714.2857142857
      571.4285714286
      571.4285714286
      714.2857142857
      714.2857142857
      714.2857142857
      714.2857142857
      714.2857142857
      714.2857142857